============================== echo of input deck ==============================
#Created on Wed Jan  2 13:16:04 PST 2019 by kowa067

echo

memory total 2000 Mb
start mol

permanent_dir ./perm

geometry noautoz noautosym
 load 1a-1-2.xyz
end

basis
*  library 6-31G*
end

charge -2

dft
 mult 1
 XC b3lyp
 iterations 500
end

driver
xyz mol
maxiter 100
end

task dft optimize

================================================================================

         Total DFT energy =     -997.084511415533
@ Step       Energy      Delta E   Gmax     Grms     Xrms     Xmax   Walltime
@ ---- ---------------- -------- -------- -------- -------- -------- --------
@    0    -997.08451142  0.0D+00  0.00014  0.00006  0.00000  0.00000     16.0
         Total DFT energy =     -997.084511870942

                       DFT Final Molecular Orbital Analysis
                       ------------------------------------

 Vector    1  Occ=2.000000D+00  E=-3.818134D+01

 Vector  164  Occ=0.000000D+00  E= 1.979170D+00

 Vector  165  Occ=0.000000D+00  E= 2.009821D+00

 Vector  166  Occ=0.000000D+00  E= 2.015822D+00

 Vector  167  Occ=0.000000D+00  E= 2.020145D+00

 Vector  168  Occ=0.000000D+00  E= 2.025541D+00

 Vector  169  Occ=0.000000D+00  E= 2.037501D+00

 Vector  170  Occ=0.000000D+00  E= 2.047080D+00

 Vector  171  Occ=0.000000D+00  E= 2.071585D+00

 Vector  172  Occ=0.000000D+00  E= 2.075500D+00

 Vector  173  Occ=0.000000D+00  E= 2.086410D+00

 Vector  174  Occ=0.000000D+00  E= 2.099626D+00

 Vector  175  Occ=0.000000D+00  E= 2.115547D+00

 Vector  176  Occ=0.000000D+00  E= 2.118587D+00

 Vector  177  Occ=0.000000D+00  E= 2.124054D+00

 Vector  178  Occ=0.000000D+00  E= 2.132470D+00

 Vector  179  Occ=0.000000D+00  E= 2.146314D+00

 Vector  180  Occ=0.000000D+00  E= 2.153034D+00

 Vector  181  Occ=0.000000D+00  E= 2.171797D+00

 Vector  182  Occ=0.000000D+00  E= 2.181553D+00

 Vector  183  Occ=0.000000D+00  E= 2.193165D+00

 Vector  184  Occ=0.000000D+00  E= 2.208018D+00

 Vector  185  Occ=0.000000D+00  E= 2.220668D+00

 Vector  186  Occ=0.000000D+00  E= 2.229176D+00

 Vector  187  Occ=0.000000D+00  E= 2.250494D+00

 Vector  188  Occ=0.000000D+00  E= 2.259100D+00

 Vector  189  Occ=0.000000D+00  E= 2.277597D+00

 Vector  190  Occ=0.000000D+00  E= 2.293324D+00

 Vector  191  Occ=0.000000D+00  E= 2.303887D+00

 Vector  192  Occ=0.000000D+00  E= 2.312316D+00

 Vector  193  Occ=0.000000D+00  E= 2.326395D+00

 Vector  194  Occ=0.000000D+00  E= 2.366127D+00

 Vector  195  Occ=0.000000D+00  E= 2.380641D+00

 Vector  196  Occ=0.000000D+00  E= 2.424895D+00

 Vector  197  Occ=0.000000D+00  E= 2.428768D+00

 Vector  198  Occ=0.000000D+00  E= 2.476958D+00

 Vector  199  Occ=0.000000D+00  E= 2.518837D+00

 Vector  200  Occ=0.000000D+00  E= 2.560985D+00

 Vector  201  Occ=0.000000D+00  E= 2.610354D+00

 Vector  202  Occ=0.000000D+00  E= 2.623872D+00

 Vector  203  Occ=0.000000D+00  E= 2.661813D+00

 Vector  204  Occ=0.000000D+00  E= 2.668016D+00

 Vector  205  Occ=0.000000D+00  E= 2.722046D+00

 Vector  206  Occ=0.000000D+00  E= 2.749646D+00

 Vector  207  Occ=0.000000D+00  E= 2.758800D+00

 Vector  208  Occ=0.000000D+00  E= 2.834224D+00

 Vector  209  Occ=0.000000D+00  E= 2.838995D+00

 Vector  210  Occ=0.000000D+00  E= 2.850400D+00

 Vector  211  Occ=0.000000D+00  E= 2.890240D+00

 Vector  212  Occ=0.000000D+00  E= 2.903607D+00

 Vector  213  Occ=0.000000D+00  E= 2.946951D+00

 Vector  214  Occ=0.000000D+00  E= 2.950851D+00

 Vector  215  Occ=0.000000D+00  E= 2.997835D+00

 Vector  216  Occ=0.000000D+00  E= 3.021908D+00

 Vector  217  Occ=0.000000D+00  E= 3.061015D+00

 Vector  218  Occ=0.000000D+00  E= 3.107232D+00

 Vector  219  Occ=0.000000D+00  E= 3.140845D+00

 Vector  220  Occ=0.000000D+00  E= 3.180267D+00

 Vector  221  Occ=0.000000D+00  E= 3.202476D+00

 Vector  222  Occ=0.000000D+00  E= 3.218992D+00

 Vector  223  Occ=0.000000D+00  E= 3.236218D+00

 Vector  224  Occ=0.000000D+00  E= 3.260879D+00

 Vector  225  Occ=0.000000D+00  E= 3.280356D+00

 Vector  226  Occ=0.000000D+00  E= 3.288652D+00

 Vector  227  Occ=0.000000D+00  E= 3.390094D+00

 Vector  228  Occ=0.000000D+00  E= 3.402116D+00

 Vector  229  Occ=0.000000D+00  E= 3.471832D+00

 Vector  230  Occ=0.000000D+00  E= 3.945347D+00

 Vector  231  Occ=0.000000D+00  E= 4.193686D+00

 Vector  232  Occ=0.000000D+00  E= 4.232929D+00

 Vector  233  Occ=0.000000D+00  E= 4.276478D+00

 Vector  234  Occ=0.000000D+00  E= 4.365785D+00

 Vector  235  Occ=0.000000D+00  E= 4.391883D+00

 Vector  236  Occ=0.000000D+00  E= 4.501183D+00

 Vector  237  Occ=0.000000D+00  E= 4.545225D+00

 Vector  238  Occ=0.000000D+00  E= 4.615169D+00

 Vector  239  Occ=0.000000D+00  E= 4.669087D+00

 Vector  240  Occ=0.000000D+00  E= 4.778416D+00

 Vector  241  Occ=0.000000D+00  E= 4.805295D+00

 Vector  242  Occ=0.000000D+00  E= 4.923048D+00

 Vector  243  Occ=0.000000D+00  E= 5.087725D+00

     Multipole analysis of the density
     ---------------------------------

     L   x y z        total         alpha         beta         nuclear
     -   - - -        -----         -----         ----         -------
     0   0 0 0     -2.000000    -60.000000    -60.000000    118.000000

     1   1 0 0      1.365354      0.683794      0.683794     -0.002235
     1   0 1 0      0.162799      0.077963      0.077963      0.006873
     1   0 0 1      0.763597      0.383279      0.383279     -0.002962

     2   2 0 0   -132.511829   -996.352447   -996.352447   1860.193065
     2   1 1 0     21.257943    252.217294    252.217294   -483.176645
     2   1 0 1      2.709961      8.448087      8.448087    -14.186213
     2   0 2 0   -107.438366   -663.305364   -663.305364   1219.172362
     2   0 1 1      3.421992     13.844226     13.844226    -24.266461

         Total DFT energy =   -997.084511870942
@    1    -997.08451187 -4.6D-07  0.00016  0.00005  0.00031  0.00097     20.4
@    1    -997.08451187 -4.6D-07  0.00016  0.00005  0.00031  0.00097     20.4

 Output coordinates in angstroms (scale by  1.889725989 to convert to a.u.)

  No.       Tag          Charge          X              Y              Z
 ---- ---------------- ---------- -------------- -------------- --------------
    1 O                    8.0000    -0.52193241     0.21909212     1.38923747
    2 O                    8.0000    -2.89000469    -0.45954472     1.39299774
    3 O                    8.0000    -3.02565509    -1.06998509    -0.79394872
    4 O                    8.0000    -1.96063154     2.92192539    -0.71359792
    5 O                    8.0000     2.10099336    -0.47738211    -0.10776650
    6 O                    8.0000     0.22912138     2.92537646    -0.16524614
    7 O                    8.0000     1.92420556    -2.70780897    -0.34001200
    8 C                    6.0000    -0.91085124    -0.22686348     0.06912828
    9 C                    6.0000    -0.72599862     0.86860878    -1.03401087
   10 C                    6.0000    -0.13109040    -1.51786803    -0.27352950
   11 C                    6.0000    -2.44397182    -0.61896458     0.21000555
   12 C                    6.0000    -0.85594764     2.36886293    -0.59284721
   13 C                    6.0000     1.42542118    -1.56092277    -0.23318167
   14 H                    1.0000    -0.46087537    -2.30813277     0.41319936
   15 H                    1.0000    -0.44678731    -1.85200443    -1.26984872
   16 H                    1.0000     0.25740212     0.73523211    -1.50556807
   17 H                    1.0000    -1.49024326     0.65800244    -1.78768842
   18 H                    1.0000    -1.42286379     0.12736095     1.83555250
   19 Na                  11.0000     1.27255463     1.30946860     0.79255160
   20 O                    8.0000     4.58896340    -1.86271761    -0.04508276
   21 H                    1.0000     3.83485983    -2.48656233    -0.15365840
   22 H                    1.0000     4.02337567    -1.06317422    -0.05766010

 Total times  cpu:       17.5s     wall:       20.4s
