============================== echo of input deck ==============================
#Created on Wed Dec  6 09:12:15 PST 2017 by lire931

echo

memory total 2000 Mb
start mol

permanent_dir ./perm

geometry noautoz noautosym
 load n12-0.xyz
end

basis
*  library 6-31++G**
end

charge -1

dft
 mult 1
 xc xwpbe 1.00 cpbe96 1.0 hfexch 1.00
 cam 0.23 cam_alpha 0.00 cam_beta 1.00
# xc xcampbe96 1.0 cpbe96 1.0 HFexch 1.0
# cam 0.30 cam_alpha 0.25 cam_beta 0.75
 direct
 iterations 500
end

task dft energy

charge 0
dft
 mult 2
 xc xwpbe 1.00 cpbe96 1.0 hfexch 1.00
 cam 0.23 cam_alpha 0.00 cam_beta 1.00
# xc xcampbe96 1.0 cpbe96 1.0 HFexch 1.0
# cam 0.30 cam_alpha 0.25 cam_beta 0.75
 direct
 iterations 500
 print "alpha partner info"
end

task dft energy
================================================================================

 Output coordinates in angstroms (scale by  1.889725989 to convert to a.u.)

  No.       Tag          Charge          X              Y              Z
 ---- ---------------- ---------- -------------- -------------- --------------
    1 C                    6.0000    -2.19321910     0.22264624     2.23187264
    2 H                    1.0000    -3.05250834    -0.15984723     1.67937008
    3 H                    1.0000    -2.55802588     0.77724980     3.10512860
    4 C                    6.0000    -1.31188299    -0.94384078     2.73212545
    5 H                    1.0000    -0.54503848    -0.57754990     3.41706015
    6 H                    1.0000    -1.94854530    -1.64917512     3.28097975
    7 C                    6.0000    -1.40520806     1.20121512     1.35736829
    8 O                    8.0000    -0.40103608     1.76789831     1.89001594
    9 O                    8.0000    -1.77425082     1.38280860     0.15582512
   10 C                    6.0000    -0.65319802    -1.71943129     1.58702918
   11 O                    8.0000    -1.40949521    -2.14575729     0.66612572
   12 O                    8.0000     0.60536742    -1.89817060     1.61850311
   13 Na                  11.0000     1.88036164     0.87777857    -1.46870715
   14 O                    8.0000    -3.35665143    -0.82053048    -0.70236900
   15 H                    1.0000    -3.01437092     0.08587775    -0.56947501
   16 H                    1.0000    -2.77549310    -1.35325460    -0.11221802
   17 O                    8.0000     0.91167463    -4.57409802     0.26770723
   18 H                    1.0000     0.86139091    -3.78176862     0.83023405
   19 H                    1.0000     0.50794673    -4.28740955    -0.56451936
   20 O                    8.0000    -0.42598006    -2.61323259    -1.75206575
   21 H                    1.0000    -1.21491496    -2.68893421    -2.33237665
   22 H                    1.0000    -0.79080304    -2.53221758    -0.82782504
   23 O                    8.0000    -0.53605256     3.67931158    -0.95628317
   24 H                    1.0000    -0.09747548     4.10261388    -0.19145775
   25 H                    1.0000    -1.02319469     2.91637547    -0.57599651
   26 O                    8.0000     1.93826938    -1.52347161    -0.76521092
   27 H                    1.0000     1.55498952    -1.67525181     0.12991754
   28 H                    1.0000     1.33712505    -2.01059613    -1.35831462
   29 O                    8.0000    -2.89210795    -2.25530251    -2.94112306
   30 H                    1.0000    -3.57338916    -2.93648463    -2.91012259
   31 H                    1.0000    -3.11706396    -1.62358155    -2.20692394
   32 O                    8.0000     1.04446033     2.58250409    -2.88729592
   33 H                    1.0000     0.40091077     1.91784182    -3.17776426
   34 H                    1.0000     0.53139081     3.10188308    -2.21833716
   35 O                    8.0000     2.02822882     1.80815463     0.62586832
   36 H                    1.0000     1.07251676     1.86243380     0.85453580
   37 H                    1.0000     2.34635860     1.22606244     1.34808782
   38 O                    8.0000     4.07303937    -0.16562319    -1.63577206
   39 H                    1.0000     4.71277091     0.08587712    -0.96019364
   40 H                    1.0000     3.51699914    -0.87762133    -1.24454130
   41 O                    8.0000     1.85487774     0.23870709     2.90602115
   42 H                    1.0000     1.52922605    -0.61700581     2.54743165
   43 H                    1.0000     1.05201528     0.79128620     2.91222158
   44 O                    8.0000    -0.33968277     0.23683861    -1.99184874
   45 H                    1.0000    -0.89383154     0.59102788    -1.26941959
   46 H                    1.0000    -0.42577281    -0.73681518    -1.95598013
   47 O                    8.0000     0.74282204     4.34008409     1.49663036
   48 H                    1.0000     0.21088935     3.59680959     1.84315366
   49 H                    1.0000     1.58510547     3.91210795     1.27492386

         Total DFT energy =    -1534.360145444967
         Total DFT energy =    -1534.112261055770

                    DFT Final Alpha Molecular Orbital Analysis
                    ------------------------------------------

 Vector   22  Occ=1.000000D+00  E=-2.173352D+00

 Vector  156  Occ=0.000000D+00  E= 2.328007D-01

 Vector  157  Occ=0.000000D+00  E= 2.373086D-01

 Vector  158  Occ=0.000000D+00  E= 2.394887D-01

 Vector  159  Occ=0.000000D+00  E= 2.458809D-01

 Vector  160  Occ=0.000000D+00  E= 2.480583D-01

 Vector  161  Occ=0.000000D+00  E= 2.524580D-01

 Vector  162  Occ=0.000000D+00  E= 2.566216D-01

 Vector  163  Occ=0.000000D+00  E= 2.587589D-01

 Vector  164  Occ=0.000000D+00  E= 2.635598D-01

 Vector  165  Occ=0.000000D+00  E= 2.705128D-01

 Vector  166  Occ=0.000000D+00  E= 2.721509D-01

 Vector  167  Occ=0.000000D+00  E= 2.738983D-01

 Vector  168  Occ=0.000000D+00  E= 2.761691D-01

 Vector  169  Occ=0.000000D+00  E= 2.792766D-01

 Vector  170  Occ=0.000000D+00  E= 2.808132D-01

 Vector  171  Occ=0.000000D+00  E= 2.835828D-01

 Vector  172  Occ=0.000000D+00  E= 2.883116D-01

 Vector  173  Occ=0.000000D+00  E= 2.903428D-01

 Vector  174  Occ=0.000000D+00  E= 2.926032D-01

 Vector  175  Occ=0.000000D+00  E= 2.945659D-01

 Vector  176  Occ=0.000000D+00  E= 2.967579D-01

 Vector  177  Occ=0.000000D+00  E= 3.007664D-01

 Vector  178  Occ=0.000000D+00  E= 3.039061D-01

 Vector  179  Occ=0.000000D+00  E= 3.073202D-01

 Vector  180  Occ=0.000000D+00  E= 3.085282D-01

 Vector  181  Occ=0.000000D+00  E= 3.134090D-01

 Vector  182  Occ=0.000000D+00  E= 3.164877D-01

 Vector  183  Occ=0.000000D+00  E= 3.180874D-01

 Vector  184  Occ=0.000000D+00  E= 3.193195D-01

 Vector  185  Occ=0.000000D+00  E= 3.228605D-01

 Vector  186  Occ=0.000000D+00  E= 3.266602D-01

 Vector  187  Occ=0.000000D+00  E= 3.281501D-01

 Vector  188  Occ=0.000000D+00  E= 3.300182D-01

 Vector  189  Occ=0.000000D+00  E= 3.324437D-01

 Vector  190  Occ=0.000000D+00  E= 3.353443D-01

 Vector  191  Occ=0.000000D+00  E= 3.386501D-01

 Vector  192  Occ=0.000000D+00  E= 3.411348D-01

 Vector  193  Occ=0.000000D+00  E= 3.442866D-01

 Vector  194  Occ=0.000000D+00  E= 3.468196D-01

 Vector  195  Occ=0.000000D+00  E= 3.494874D-01

 Vector  196  Occ=0.000000D+00  E= 3.541955D-01

 Vector  197  Occ=0.000000D+00  E= 3.550985D-01

 Vector  198  Occ=0.000000D+00  E= 3.558924D-01

 Vector  199  Occ=0.000000D+00  E= 3.573534D-01

 Vector  200  Occ=0.000000D+00  E= 3.607182D-01

 Vector  201  Occ=0.000000D+00  E= 3.638120D-01

 Vector  202  Occ=0.000000D+00  E= 3.676235D-01

 Vector  203  Occ=0.000000D+00  E= 3.682340D-01

 Vector  204  Occ=0.000000D+00  E= 3.727021D-01

 Vector  205  Occ=0.000000D+00  E= 3.768456D-01

 Vector  206  Occ=0.000000D+00  E= 3.780010D-01

 Vector  207  Occ=0.000000D+00  E= 3.830235D-01

 Vector  208  Occ=0.000000D+00  E= 3.861489D-01

 Vector  209  Occ=0.000000D+00  E= 3.901348D-01

 Vector  210  Occ=0.000000D+00  E= 3.917049D-01

 Vector  211  Occ=0.000000D+00  E= 3.933389D-01

 Vector  212  Occ=0.000000D+00  E= 3.958319D-01

 Vector  213  Occ=0.000000D+00  E= 4.014518D-01

 Vector  214  Occ=0.000000D+00  E= 4.039524D-01

 Vector  215  Occ=0.000000D+00  E= 4.093238D-01

 Vector  216  Occ=0.000000D+00  E= 4.101825D-01

 Vector  217  Occ=0.000000D+00  E= 4.107284D-01

 Vector  218  Occ=0.000000D+00  E= 4.147456D-01

 Vector  219  Occ=0.000000D+00  E= 4.221231D-01

 Vector  220  Occ=0.000000D+00  E= 4.276541D-01

 Vector  221  Occ=0.000000D+00  E= 4.298385D-01

 Vector  222  Occ=0.000000D+00  E= 4.323150D-01

 Vector  223  Occ=0.000000D+00  E= 4.347191D-01

 Vector  224  Occ=0.000000D+00  E= 4.445711D-01

 Vector  225  Occ=0.000000D+00  E= 4.495624D-01

 Vector  226  Occ=0.000000D+00  E= 4.547607D-01

 Vector  227  Occ=0.000000D+00  E= 4.608014D-01

 Vector  228  Occ=0.000000D+00  E= 4.647844D-01

 Vector  229  Occ=0.000000D+00  E= 4.665943D-01

 Vector  230  Occ=0.000000D+00  E= 4.741653D-01

 Vector  231  Occ=0.000000D+00  E= 4.819269D-01

 Vector  232  Occ=0.000000D+00  E= 4.852499D-01

 Vector  233  Occ=0.000000D+00  E= 4.904943D-01

 Vector  234  Occ=0.000000D+00  E= 4.936018D-01

 Vector  235  Occ=0.000000D+00  E= 5.019025D-01

     Multipole analysis of the density
     ---------------------------------

     L   x y z        total         alpha         beta         nuclear
     -   - - -        -----         -----         ----         -------
     0   0 0 0     -0.000000    -96.000000    -95.000000    191.000000

     1   1 0 0     -1.850469     -0.130689     -1.719780      0.000000
     1   0 1 0     -0.696093     -0.095836     -0.600257      0.000000
     1   0 0 1      2.504179      0.130316      2.373863     -0.000000

     2   2 0 0    -98.390587  -1228.984990  -1221.882553   2352.476956
     2   1 1 0      6.988141   -204.930408   -205.956838    417.875387
     2   1 0 1     -7.174720     42.462166     38.523225    -88.160111
     2   0 2 0   -131.150169  -1710.329210  -1696.327061   3275.506103
     2   0 1 1      4.587818    -84.790497    -86.259695    175.638009

 Total times  cpu:     1993.7s     wall:     1930.6s
